<?xml version="1.0" encoding="UTF-8" ?>
<cml xmlns="http://www.xml-cml.org/schema/cml2/core">
<matrix dataType="xsd:decimal" title="Rotation Matrix" columns="4" rows="4">0.993661 0.112151 -0.00772196 0.167792 -0.111456 0.973876 -0.197845 -0.00227654 -0.0146684 0.197452 0.980203 0 0 0 0 1</matrix>
<metadataList>
<metadata name="Maximum Size" content="5.61402"></metadata>
<metadata name="Window Size" content="25.9636"></metadata>
<metadata name="Current Frame" content="1"></metadata>
<metadata name="Label Hydrogen Atoms" content="true"></metadata>
<metadata name="BasisSet">
<BasisSet MapLength="13" NumberBasisShells="60" NumberBasisFunctions="135">
<BasisShell ShellType="0" NumberPrimitives="8">
<array dataType="xsd:decimal" title="Exponent" size="8">6665 1000 228 64.71 21.06 7.495 2.797 0.5215 </array>
<array dataType="xsd:decimal" title="NormalizedCoefficient" size="8">0.363584 0.674986 1.13162 1.65301 1.92382 1.44728 0.439163 0.0066458 </array>
<array dataType="xsd:decimal" title="InputCoefficient" size="8">0.000691584 0.0053258 0.0270607 0.101657 0.274575 0.448294 0.284903 0.0151949 </array>
</BasisShell>
<BasisShell ShellType="0" NumberPrimitives="8">
<array dataType="xsd:decimal" title="Exponent" size="8">6665 1000 228 64.71 21.06 7.495 2.797 0.5215 </array>
<array dataType="xsd:decimal" title="NormalizedCoefficient" size="8">-0.15418 -0.293785 -0.480896 -0.761434 -0.900104 -0.972611 -0.394042 0.478394 </array>
<array dataType="xsd:decimal" title="InputCoefficient" size="8">-0.00029327 -0.00231804 -0.0114998 -0.0468267 -0.128466 -0.301266 -0.255631 1.09379 </array>
</BasisShell>
<BasisShell ShellType="0" NumberPrimitives="1">
<array dataType="xsd:decimal" title="Exponent" size="1">0.1596 </array>
<array dataType="xsd:decimal" title="NormalizedCoefficient" size="1">0.179964 </array>
<array dataType="xsd:decimal" title="InputCoefficient" size="1">1 </array>
</BasisShell>
<BasisShell ShellType="1" NumberPrimitives="3">
<array dataType="xsd:decimal" title="Exponent" size="3">9.439 2.002 0.5456 </array>
<array dataType="xsd:decimal" title="NormalizedCoefficient" size="3">1.34374 1.06317 0.508232 </array>
<array dataType="xsd:decimal" title="InputCoefficient" size="3">0.0569793 0.313207 0.760377 </array>
</BasisShell>
<BasisShell ShellType="1" NumberPrimitives="1">
<array dataType="xsd:decimal" title="Exponent" size="1">0.1517 </array>
<array dataType="xsd:decimal" title="NormalizedCoefficient" size="1">0.13495 </array>
<array dataType="xsd:decimal" title="InputCoefficient" size="1">1 </array>
</BasisShell>
<BasisShell ShellType="2" NumberPrimitives="1">
<array dataType="xsd:decimal" title="Exponent" size="1">0.55 </array>
<array dataType="xsd:decimal" title="NormalizedCoefficient" size="1">0.578155 </array>
<array dataType="xsd:decimal" title="InputCoefficient" size="1">1 </array>
</BasisShell>
<BasisShell ShellType="0" NumberPrimitives="8">
<array dataType="xsd:decimal" title="Exponent" size="8">6665 1000 228 64.71 21.06 7.495 2.797 0.5215 </array>
<array dataType="xsd:decimal" title="NormalizedCoefficient" size="8">0.363584 0.674986 1.13162 1.65301 1.92382 1.44728 0.439163 0.0066458 </array>
<array dataType="xsd:decimal" title="InputCoefficient" size="8">0.000691584 0.0053258 0.0270607 0.101657 0.274575 0.448294 0.284903 0.0151949 </array>
</BasisShell>
<BasisShell ShellType="0" NumberPrimitives="8">
<array dataType="xsd:decimal" title="Exponent" size="8">6665 1000 228 64.71 21.06 7.495 2.797 0.5215 </array>
<array dataType="xsd:decimal" title="NormalizedCoefficient" size="8">-0.15418 -0.293785 -0.480896 -0.761434 -0.900104 -0.972611 -0.394042 0.478394 </array>
<array dataType="xsd:decimal" title="InputCoefficient" size="8">-0.00029327 -0.00231804 -0.0114998 -0.0468267 -0.128466 -0.301266 -0.255631 1.09379 </array>
</BasisShell>
<BasisShell ShellType="0" NumberPrimitives="1">
<array dataType="xsd:decimal" title="Exponent" size="1">0.1596 </array>
<array dataType="xsd:decimal" title="NormalizedCoefficient" size="1">0.179964 </array>
<array dataType="xsd:decimal" title="InputCoefficient" size="1">1 </array>
</BasisShell>
<BasisShell ShellType="1" NumberPrimitives="3">
<array dataType="xsd:decimal" title="Exponent" size="3">9.439 2.002 0.5456 </array>
<array dataType="xsd:decimal" title="NormalizedCoefficient" size="3">1.34374 1.06317 0.508232 </array>
<array dataType="xsd:decimal" title="InputCoefficient" size="3">0.0569793 0.313207 0.760377 </array>
</BasisShell>
<BasisShell ShellType="1" NumberPrimitives="1">
<array dataType="xsd:decimal" title="Exponent" size="1">0.1517 </array>
<array dataType="xsd:decimal" title="NormalizedCoefficient" size="1">0.13495 </array>
<array dataType="xsd:decimal" title="InputCoefficient" size="1">1 </array>
</BasisShell>
<BasisShell ShellType="2" NumberPrimitives="1">
<array dataType="xsd:decimal" title="Exponent" size="1">0.55 </array>
<array dataType="xsd:decimal" title="NormalizedCoefficient" size="1">0.578155 </array>
<array dataType="xsd:decimal" title="InputCoefficient" size="1">1 </array>
</BasisShell>
<BasisShell ShellType="0" NumberPrimitives="8">
<array dataType="xsd:decimal" title="Exponent" size="8">6665 1000 228 64.71 21.06 7.495 2.797 0.5215 </array>
<array dataType="xsd:decimal" title="NormalizedCoefficient" size="8">0.363584 0.674986 1.13162 1.65301 1.92382 1.44728 0.439163 0.0066458 </array>
<array dataType="xsd:decimal" title="InputCoefficient" size="8">0.000691584 0.0053258 0.0270607 0.101657 0.274575 0.448294 0.284903 0.0151949 </array>
</BasisShell>
<BasisShell ShellType="0" NumberPrimitives="8">
<array dataType="xsd:decimal" title="Exponent" size="8">6665 1000 228 64.71 21.06 7.495 2.797 0.5215 </array>
<array dataType="xsd:decimal" title="NormalizedCoefficient" size="8">-0.15418 -0.293785 -0.480896 -0.761434 -0.900104 -0.972611 -0.394042 0.478394 </array>
<array dataType="xsd:decimal" title="InputCoefficient" size="8">-0.00029327 -0.00231804 -0.0114998 -0.0468267 -0.128466 -0.301266 -0.255631 1.09379 </array>
</BasisShell>
<BasisShell ShellType="0" NumberPrimitives="1">
<array dataType="xsd:decimal" title="Exponent" size="1">0.1596 </array>
<array dataType="xsd:decimal" title="NormalizedCoefficient" size="1">0.179964 </array>
<array dataType="xsd:decimal" title="InputCoefficient" size="1">1 </array>
</BasisShell>
<BasisShell ShellType="1" NumberPrimitives="3">
<array dataType="xsd:decimal" title="Exponent" size="3">9.439 2.002 0.5456 </array>
<array dataType="xsd:decimal" title="NormalizedCoefficient" size="3">1.34374 1.06317 0.508232 </array>
<array dataType="xsd:decimal" title="InputCoefficient" size="3">0.0569793 0.313207 0.760377 </array>
</BasisShell>
<BasisShell ShellType="1" NumberPrimitives="1">
<array dataType="xsd:decimal" title="Exponent" size="1">0.1517 </array>
<array dataType="xsd:decimal" title="NormalizedCoefficient" size="1">0.13495 </array>
<array dataType="xsd:decimal" title="InputCoefficient" size="1">1 </array>
</BasisShell>
<BasisShell ShellType="2" NumberPrimitives="1">
<array dataType="xsd:decimal" title="Exponent" size="1">0.55 </array>
<array dataType="xsd:decimal" title="NormalizedCoefficient" size="1">0.578155 </array>
<array dataType="xsd:decimal" title="InputCoefficient" size="1">1 </array>
</BasisShell>
<BasisShell ShellType="0" NumberPrimitives="8">
<array dataType="xsd:decimal" title="Exponent" size="8">6665 1000 228 64.71 21.06 7.495 2.797 0.5215 </array>
<array dataType="xsd:decimal" title="NormalizedCoefficient" size="8">0.363584 0.674986 1.13162 1.65301 1.92382 1.44728 0.439163 0.0066458 </array>
<array dataType="xsd:decimal" title="InputCoefficient" size="8">0.000691584 0.0053258 0.0270607 0.101657 0.274575 0.448294 0.284903 0.0151949 </array>
</BasisShell>
<BasisShell ShellType="0" NumberPrimitives="8">
<array dataType="xsd:decimal" title="Exponent" size="8">6665 1000 228 64.71 21.06 7.495 2.797 0.5215 </array>
<array dataType="xsd:decimal" title="NormalizedCoefficient" size="8">-0.15418 -0.293785 -0.480896 -0.761434 -0.900104 -0.972611 -0.394042 0.478394 </array>
<array dataType="xsd:decimal" title="InputCoefficient" size="8">-0.00029327 -0.00231804 -0.0114998 -0.0468267 -0.128466 -0.301266 -0.255631 1.09379 </array>
</BasisShell>
<BasisShell ShellType="0" NumberPrimitives="1">
<array dataType="xsd:decimal" title="Exponent" size="1">0.1596 </array>
<array dataType="xsd:decimal" title="NormalizedCoefficient" size="1">0.179964 </array>
<array dataType="xsd:decimal" title="InputCoefficient" size="1">1 </array>
</BasisShell>
<BasisShell ShellType="1" NumberPrimitives="3">
<array dataType="xsd:decimal" title="Exponent" size="3">9.439 2.002 0.5456 </array>
<array dataType="xsd:decimal" title="NormalizedCoefficient" size="3">1.34374 1.06317 0.508232 </array>
<array dataType="xsd:decimal" title="InputCoefficient" size="3">0.0569793 0.313207 0.760377 </array>
</BasisShell>
<BasisShell ShellType="1" NumberPrimitives="1">
<array dataType="xsd:decimal" title="Exponent" size="1">0.1517 </array>
<array dataType="xsd:decimal" title="NormalizedCoefficient" size="1">0.13495 </array>
<array dataType="xsd:decimal" title="InputCoefficient" size="1">1 </array>
</BasisShell>
<BasisShell ShellType="2" NumberPrimitives="1">
<array dataType="xsd:decimal" title="Exponent" size="1">0.55 </array>
<array dataType="xsd:decimal" title="NormalizedCoefficient" size="1">0.578155 </array>
<array dataType="xsd:decimal" title="InputCoefficient" size="1">1 </array>
</BasisShell>
<BasisShell ShellType="0" NumberPrimitives="8">
<array dataType="xsd:decimal" title="Exponent" size="8">6665 1000 228 64.71 21.06 7.495 2.797 0.5215 </array>
<array dataType="xsd:decimal" title="NormalizedCoefficient" size="8">0.363584 0.674986 1.13162 1.65301 1.92382 1.44728 0.439163 0.0066458 </array>
<array dataType="xsd:decimal" title="InputCoefficient" size="8">0.000691584 0.0053258 0.0270607 0.101657 0.274575 0.448294 0.284903 0.0151949 </array>
</BasisShell>
<BasisShell ShellType="0" NumberPrimitives="8">
<array dataType="xsd:decimal" title="Exponent" size="8">6665 1000 228 64.71 21.06 7.495 2.797 0.5215 </array>
<array dataType="xsd:decimal" title="NormalizedCoefficient" size="8">-0.15418 -0.293785 -0.480896 -0.761434 -0.900104 -0.972611 -0.394042 0.478394 </array>
<array dataType="xsd:decimal" title="InputCoefficient" size="8">-0.00029327 -0.00231804 -0.0114998 -0.0468267 -0.128466 -0.301266 -0.255631 1.09379 </array>
</BasisShell>
<BasisShell ShellType="0" NumberPrimitives="1">
<array dataType="xsd:decimal" title="Exponent" size="1">0.1596 </array>
<array dataType="xsd:decimal" title="NormalizedCoefficient" size="1">0.179964 </array>
<array dataType="xsd:decimal" title="InputCoefficient" size="1">1 </array>
</BasisShell>
<BasisShell ShellType="1" NumberPrimitives="3">
<array dataType="xsd:decimal" title="Exponent" size="3">9.439 2.002 0.5456 </array>
<array dataType="xsd:decimal" title="NormalizedCoefficient" size="3">1.34374 1.06317 0.508232 </array>
<array dataType="xsd:decimal" title="InputCoefficient" size="3">0.0569793 0.313207 0.760377 </array>
</BasisShell>
<BasisShell ShellType="1" NumberPrimitives="1">
<array dataType="xsd:decimal" title="Exponent" size="1">0.1517 </array>
<array dataType="xsd:decimal" title="NormalizedCoefficient" size="1">0.13495 </array>
<array dataType="xsd:decimal" title="InputCoefficient" size="1">1 </array>
</BasisShell>
<BasisShell ShellType="2" NumberPrimitives="1">
<array dataType="xsd:decimal" title="Exponent" size="1">0.55 </array>
<array dataType="xsd:decimal" title="NormalizedCoefficient" size="1">0.578155 </array>
<array dataType="xsd:decimal" title="InputCoefficient" size="1">1 </array>
</BasisShell>
<BasisShell ShellType="0" NumberPrimitives="8">
<array dataType="xsd:decimal" title="Exponent" size="8">6665 1000 228 64.71 21.06 7.495 2.797 0.5215 </array>
<array dataType="xsd:decimal" title="NormalizedCoefficient" size="8">0.363584 0.674986 1.13162 1.65301 1.92382 1.44728 0.439163 0.0066458 </array>
<array dataType="xsd:decimal" title="InputCoefficient" size="8">0.000691584 0.0053258 0.0270607 0.101657 0.274575 0.448294 0.284903 0.0151949 </array>
</BasisShell>
<BasisShell ShellType="0" NumberPrimitives="8">
<array dataType="xsd:decimal" title="Exponent" size="8">6665 1000 228 64.71 21.06 7.495 2.797 0.5215 </array>
<array dataType="xsd:decimal" title="NormalizedCoefficient" size="8">-0.15418 -0.293785 -0.480896 -0.761434 -0.900104 -0.972611 -0.394042 0.478394 </array>
<array dataType="xsd:decimal" title="InputCoefficient" size="8">-0.00029327 -0.00231804 -0.0114998 -0.0468267 -0.128466 -0.301266 -0.255631 1.09379 </array>
</BasisShell>
<BasisShell ShellType="0" NumberPrimitives="1">
<array dataType="xsd:decimal" title="Exponent" size="1">0.1596 </array>
<array dataType="xsd:decimal" title="NormalizedCoefficient" size="1">0.179964 </array>
<array dataType="xsd:decimal" title="InputCoefficient" size="1">1 </array>
</BasisShell>
<BasisShell ShellType="1" NumberPrimitives="3">
<array dataType="xsd:decimal" title="Exponent" size="3">9.439 2.002 0.5456 </array>
<array dataType="xsd:decimal" title="NormalizedCoefficient" size="3">1.34374 1.06317 0.508232 </array>
<array dataType="xsd:decimal" title="InputCoefficient" size="3">0.0569793 0.313207 0.760377 </array>
</BasisShell>
<BasisShell ShellType="1" NumberPrimitives="1">
<array dataType="xsd:decimal" title="Exponent" size="1">0.1517 </array>
<array dataType="xsd:decimal" title="NormalizedCoefficient" size="1">0.13495 </array>
<array dataType="xsd:decimal" title="InputCoefficient" size="1">1 </array>
</BasisShell>
<BasisShell ShellType="2" NumberPrimitives="1">
<array dataType="xsd:decimal" title="Exponent" size="1">0.55 </array>
<array dataType="xsd:decimal" title="NormalizedCoefficient" size="1">0.578155 </array>
<array dataType="xsd:decimal" title="InputCoefficient" size="1">1 </array>
</BasisShell>
<BasisShell ShellType="0" NumberPrimitives="3">
<array dataType="xsd:decimal" title="Exponent" size="3">13.01 1.962 0.4446 </array>
<array dataType="xsd:decimal" title="NormalizedCoefficient" size="3">0.163548 0.277418 0.315749 </array>
<array dataType="xsd:decimal" title="InputCoefficient" size="3">0.0334987 0.234801 0.813683 </array>
</BasisShell>
<BasisShell ShellType="0" NumberPrimitives="1">
<array dataType="xsd:decimal" title="Exponent" size="1">0.122 </array>
<array dataType="xsd:decimal" title="NormalizedCoefficient" size="1">0.147123 </array>
<array dataType="xsd:decimal" title="InputCoefficient" size="1">1 </array>
</BasisShell>
<BasisShell ShellType="1" NumberPrimitives="1">
<array dataType="xsd:decimal" title="Exponent" size="1">0.727 </array>
<array dataType="xsd:decimal" title="NormalizedCoefficient" size="1">0.956881 </array>
<array dataType="xsd:decimal" title="InputCoefficient" size="1">1 </array>
</BasisShell>
<BasisShell ShellType="0" NumberPrimitives="3">
<array dataType="xsd:decimal" title="Exponent" size="3">13.01 1.962 0.4446 </array>
<array dataType="xsd:decimal" title="NormalizedCoefficient" size="3">0.163548 0.277418 0.315749 </array>
<array dataType="xsd:decimal" title="InputCoefficient" size="3">0.0334987 0.234801 0.813683 </array>
</BasisShell>
<BasisShell ShellType="0" NumberPrimitives="1">
<array dataType="xsd:decimal" title="Exponent" size="1">0.122 </array>
<array dataType="xsd:decimal" title="NormalizedCoefficient" size="1">0.147123 </array>
<array dataType="xsd:decimal" title="InputCoefficient" size="1">1 </array>
</BasisShell>
<BasisShell ShellType="1" NumberPrimitives="1">
<array dataType="xsd:decimal" title="Exponent" size="1">0.727 </array>
<array dataType="xsd:decimal" title="NormalizedCoefficient" size="1">0.956881 </array>
<array dataType="xsd:decimal" title="InputCoefficient" size="1">1 </array>
</BasisShell>
<BasisShell ShellType="0" NumberPrimitives="3">
<array dataType="xsd:decimal" title="Exponent" size="3">13.01 1.962 0.4446 </array>
<array dataType="xsd:decimal" title="NormalizedCoefficient" size="3">0.163548 0.277418 0.315749 </array>
<array dataType="xsd:decimal" title="InputCoefficient" size="3">0.0334987 0.234801 0.813683 </array>
</BasisShell>
<BasisShell ShellType="0" NumberPrimitives="1">
<array dataType="xsd:decimal" title="Exponent" size="1">0.122 </array>
<array dataType="xsd:decimal" title="NormalizedCoefficient" size="1">0.147123 </array>
<array dataType="xsd:decimal" title="InputCoefficient" size="1">1 </array>
</BasisShell>
<BasisShell ShellType="1" NumberPrimitives="1">
<array dataType="xsd:decimal" title="Exponent" size="1">0.727 </array>
<array dataType="xsd:decimal" title="NormalizedCoefficient" size="1">0.956881 </array>
<array dataType="xsd:decimal" title="InputCoefficient" size="1">1 </array>
</BasisShell>
<BasisShell ShellType="0" NumberPrimitives="3">
<array dataType="xsd:decimal" title="Exponent" size="3">13.01 1.962 0.4446 </array>
<array dataType="xsd:decimal" title="NormalizedCoefficient" size="3">0.163548 0.277418 0.315749 </array>
<array dataType="xsd:decimal" title="InputCoefficient" size="3">0.0334987 0.234801 0.813683 </array>
</BasisShell>
<BasisShell ShellType="0" NumberPrimitives="1">
<array dataType="xsd:decimal" title="Exponent" size="1">0.122 </array>
<array dataType="xsd:decimal" title="NormalizedCoefficient" size="1">0.147123 </array>
<array dataType="xsd:decimal" title="InputCoefficient" size="1">1 </array>
</BasisShell>
<BasisShell ShellType="1" NumberPrimitives="1">
<array dataType="xsd:decimal" title="Exponent" size="1">0.727 </array>
<array dataType="xsd:decimal" title="NormalizedCoefficient" size="1">0.956881 </array>
<array dataType="xsd:decimal" title="InputCoefficient" size="1">1 </array>
</BasisShell>
<BasisShell ShellType="0" NumberPrimitives="3">
<array dataType="xsd:decimal" title="Exponent" size="3">13.01 1.962 0.4446 </array>
<array dataType="xsd:decimal" title="NormalizedCoefficient" size="3">0.163548 0.277418 0.315749 </array>
<array dataType="xsd:decimal" title="InputCoefficient" size="3">0.0334987 0.234801 0.813683 </array>
</BasisShell>
<BasisShell ShellType="0" NumberPrimitives="1">
<array dataType="xsd:decimal" title="Exponent" size="1">0.122 </array>
<array dataType="xsd:decimal" title="NormalizedCoefficient" size="1">0.147123 </array>
<array dataType="xsd:decimal" title="InputCoefficient" size="1">1 </array>
</BasisShell>
<BasisShell ShellType="1" NumberPrimitives="1">
<array dataType="xsd:decimal" title="Exponent" size="1">0.727 </array>
<array dataType="xsd:decimal" title="NormalizedCoefficient" size="1">0.956881 </array>
<array dataType="xsd:decimal" title="InputCoefficient" size="1">1 </array>
</BasisShell>
<BasisShell ShellType="0" NumberPrimitives="8">
<array dataType="xsd:decimal" title="Exponent" size="8">11720 1759 400.8 113.7 37.03 13.27 5.025 1.013 </array>
<array dataType="xsd:decimal" title="NormalizedCoefficient" size="8">0.569702 1.05835 1.77628 2.59941 3.02685 2.22239 0.647796 0.0111187 </array>
<array dataType="xsd:decimal" title="InputCoefficient" size="8">0.000709646 0.00546727 0.0278231 0.104748 0.282921 0.448495 0.270817 0.0154503 </array>
</BasisShell>
<BasisShell ShellType="0" NumberPrimitives="8">
<array dataType="xsd:decimal" title="Exponent" size="8">11720 1759 400.8 113.7 37.03 13.27 5.025 1.013 </array>
<array dataType="xsd:decimal" title="NormalizedCoefficient" size="8">-0.252434 -0.480491 -0.786299 -1.25417 -1.49122 -1.61083 -0.549798 0.788282 </array>
<array dataType="xsd:decimal" title="InputCoefficient" size="8">-0.000314443 -0.00248214 -0.0123164 -0.0505389 -0.139385 -0.325078 -0.229848 1.09538 </array>
</BasisShell>
<BasisShell ShellType="0" NumberPrimitives="1">
<array dataType="xsd:decimal" title="Exponent" size="1">0.3023 </array>
<array dataType="xsd:decimal" title="NormalizedCoefficient" size="1">0.290562 </array>
<array dataType="xsd:decimal" title="InputCoefficient" size="1">1 </array>
</BasisShell>
<BasisShell ShellType="1" NumberPrimitives="3">
<array dataType="xsd:decimal" title="Exponent" size="3">17.7 3.854 1.046 </array>
<array dataType="xsd:decimal" title="NormalizedCoefficient" size="3">3.24362 2.56728 1.11767 </array>
<array dataType="xsd:decimal" title="InputCoefficient" size="3">0.0626792 0.333537 0.74124 </array>
</BasisShell>
<BasisShell ShellType="1" NumberPrimitives="1">
<array dataType="xsd:decimal" title="Exponent" size="1">0.2753 </array>
<array dataType="xsd:decimal" title="NormalizedCoefficient" size="1">0.284248 </array>
<array dataType="xsd:decimal" title="InputCoefficient" size="1">1 </array>
</BasisShell>
<BasisShell ShellType="2" NumberPrimitives="1">
<array dataType="xsd:decimal" title="Exponent" size="1">1.185 </array>
<array dataType="xsd:decimal" title="NormalizedCoefficient" size="1">2.21522 </array>
<array dataType="xsd:decimal" title="InputCoefficient" size="1">1 </array>
</BasisShell>
<BasisShell ShellType="0" NumberPrimitives="3">
<array dataType="xsd:decimal" title="Exponent" size="3">13.01 1.962 0.4446 </array>
<array dataType="xsd:decimal" title="NormalizedCoefficient" size="3">0.163548 0.277418 0.315749 </array>
<array dataType="xsd:decimal" title="InputCoefficient" size="3">0.0334987 0.234801 0.813683 </array>
</BasisShell>
<BasisShell ShellType="0" NumberPrimitives="1">
<array dataType="xsd:decimal" title="Exponent" size="1">0.122 </array>
<array dataType="xsd:decimal" title="NormalizedCoefficient" size="1">0.147123 </array>
<array dataType="xsd:decimal" title="InputCoefficient" size="1">1 </array>
</BasisShell>
<BasisShell ShellType="1" NumberPrimitives="1">
<array dataType="xsd:decimal" title="Exponent" size="1">0.727 </array>
<array dataType="xsd:decimal" title="NormalizedCoefficient" size="1">0.956881 </array>
<array dataType="xsd:decimal" title="InputCoefficient" size="1">1 </array>
</BasisShell>
<array dataType="xsd:decimal" title="Map" size="26">0 5 6 11 12 17 18 23 24 29 30 35 36 38 39 41 42 44 45 47 48 50 51 56 57 59 </array>
<array dataType="xsd:decimal" title="NuclearCharge" size="13">6 6 6 6 6 6 1 1 1 1 1 8 1 </array>
</BasisSet>
</metadata>
<metadata name="InputOptions">
<InputOptions>
<ControlGroup>
<SCFType>RHF</SCFType>
<ExeType>RUN</ExeType>
<CIType>NONE</CIType>
<RunType>HESSIAN</RunType>
<MPLevel>0</MPLevel>
<MaxIterations>200</MaxIterations>
<Multiplicity>1</Multiplicity>
<DFTActive>true</DFTActive>
<SphericalHarmonics>true</SphericalHarmonics>
</ControlGroup>
<SystemGroup>
<TimeLimit TimeUnit="min">525600.000000</TimeLimit>
<Memory MemoryUnit="words">1000000.000000</Memory>
<Parallel>true</Parallel>
</SystemGroup>
<BasisGroup>
<BasisSet>CCD</BasisSet>
</BasisGroup>
<DataGroup>
<Title>Phenol</Title>
<PointGroup>1</PointGroup>
<NoSym>true</NoSym>
</DataGroup>
<GuessGroup></GuessGroup>
<SCFGroup>
<DirectSCF>true</DirectSCF>
<FockDiff>true</FockDiff>
</SCFGroup>
<StatPtGroup>
<ConverganceCriteria>0.000100</ConverganceCriteria>
<InitialTrustRadius>0.000000</InitialTrustRadius>
<MaxTrustRadius>0.000000</MaxTrustRadius>
<MinTrustRadius>0.050000</MinTrustRadius>
<JumpSize>0.010000</JumpSize>
<ModeToFollow>1</ModeToFollow>
<RadiusUpdate>true</RadiusUpdate>
<HessianMethod>0</HessianMethod>
<Method>3</Method>
<MaximumSteps>20</MaximumSteps>
<RecalcHessianSteps>0</RecalcHessianSteps>
</StatPtGroup>
<DFTGroup GridBased="true">
<GridSwitch>0.000300</GridSwitch>
<Threshold>0.000100</Threshold>
<Functional>PW91</Functional>
<GetAuxFunctions>true</GetAuxFunctions>
</DFTGroup>
</InputOptions>
</metadata>
<metadata name="Preferences">
<MoleculeDisplayPreferences ShowToolbar="false" AutoRotationAllowed="true" AutoRotating="false" AutoRotationSpeedX="1" AutoRotationSpeedY="1" AutoRotationSpeedZ="0" AnimationDelay="20" Atom3DQuality="13" BondWidth="0.068" AtomScale="0.005" FieldOfView="30" VectorScale="0.5" GradientScaleFactor="50" FillBrightness3D="0.6" PointBrightness3D="0.8" LineWidth3D="0.004" LabelSize="10" AtomLabelSize="1" AnnotationLabelSize="1" AnimationSpeed="7" StereoOffset="3" RotateMode="true" ShaderMode="1" AnimateMode="false" ShowAngles="true" StereoActive="false" ColorBondHalves="true" WireframeMode="false" EFPWireFrameMode="false" OutlineBonds="false" UseCylinders="false" Use3DByDefault="false" Use3DHardware="false" ShowAtomicSymbols="false" ShowAtomNumbers="false" ShowSymmetryOperators="false" ShowAtomPatterns="false" DisplayGradient="false" InvertGradient="false">
<BackgroundColor red="1" green="1" blue="1"></BackgroundColor>
<VectorColor red="1" green="0" blue="0" pattern="0"></VectorColor>
<GradientColor red="0" green="0.991836" blue="0"></GradientColor>
<BondColor BondOrder="1" red="0.260853" green="0.260853" blue="0.260853" pattern="0"></BondColor>
<BondColor BondOrder="2" red="0" green="0" blue="0" pattern="0"></BondColor>
<BondColor BondOrder="3" red="0.00650034" green="0.0517739" blue="0.573175" pattern="0"></BondColor>
<BondColor BondOrder="4" red="0.00839246" green="0.45536" blue="0.0945907" pattern="0"></BondColor>
</MoleculeDisplayPreferences>
<FileOptions SetFileCreator="true" CreateCustomIcon="true" PromptToSaveChanges="true" UseNativeEOLChars="true" SetBondOrder="true" CreateHydrogenBonds="true" ReadEverynDRCPoints="0" AutoCreateBonds="true" AutoBondTolerance="0.011" MaxBondLength="0" PreventHHBonds="true"></FileOptions>
<AtomPreferences>
<Atom Number="1" Size="37" Mass="1.0039" Label="H">
<Color red="1" green="1" blue="1" pattern="0"></Color>
</Atom>
<Atom Number="2" Size="31" Mass="2.0005" Label="He">
<Color red="1" green="1" blue="1" pattern="5"></Color>
</Atom>
<Atom Number="3" Size="152" Mass="2.6346" Label="Li">
<Color red="0.657893" green="0.657893" blue="0.657893" pattern="0"></Color>
</Atom>
<Atom Number="4" Size="112" Mass="3.00203" Label="Be">
<Color red="0.549325" green="0.549325" blue="0.549325" pattern="0"></Color>
</Atom>
<Atom Number="5" Size="85" Mass="3.288" Label="B">
<Color red="0" green="0.322347" blue="0.322347" pattern="0"></Color>
</Atom>
<Atom Number="6" Size="77" Mass="3.46569" Label="C">
<Color red="0.269703" green="0.269703" blue="0.269703" pattern="0"></Color>
</Atom>
<Atom Number="7" Size="70" Mass="3.7426" Label="N">
<Color red="0" green="0" blue="1" pattern="8"></Color>
</Atom>
<Atom Number="8" Size="73" Mass="3.9999" Label="O">
<Color red="1" green="0" blue="0" pattern="37"></Color>
</Atom>
<Atom Number="9" Size="72" Mass="4.3587" Label="F">
<Color red="0" green="1" blue="0.370642" pattern="0"></Color>
</Atom>
<Atom Number="10" Size="71" Mass="4.4922" Label="Ne">
<Color red="1" green="0" blue="0.370642" pattern="0"></Color>
</Atom>
<Atom Number="11" Size="186" Mass="4.7948" Label="Na">
<Color red="0.269703" green="0.269703" blue="0.269703" pattern="2"></Color>
</Atom>
<Atom Number="12" Size="160" Mass="4.93" Label="Mg">
<Color red="0.269703" green="0.269703" blue="0.269703" pattern="3"></Color>
</Atom>
<Atom Number="13" Size="143" Mass="5.19438" Label="Al">
<Color red="0.269703" green="0.269703" blue="0.269703" pattern="4"></Color>
</Atom>
<Atom Number="14" Size="118" Mass="5.29958" Label="Si">
<Color red="0" green="0.259388" blue="0.762936" pattern="6"></Color>
</Atom>
<Atom Number="15" Size="110" Mass="5.5654" Label="P">
<Color red="0.269703" green="0.269703" blue="0.269703" pattern="7"></Color>
</Atom>
<Atom Number="16" Size="103" Mass="5.6627" Label="S">
<Color red="1" green="1" blue="0" pattern="8"></Color>
</Atom>
<Atom Number="17" Size="99" Mass="5.9542" Label="Cl">
<Color red="0" green="0.697368" blue="0" pattern="9"></Color>
</Atom>
<Atom Number="18" Size="98" Mass="6.3204" Label="Ar">
<Color red="0.762936" green="0" blue="0" pattern="10"></Color>
</Atom>
<Atom Number="19" Size="227" Mass="6.2529" Label="K">
<Color red="0.269703" green="0.269703" blue="0.269703" pattern="11"></Color>
</Atom>
<Atom Number="20" Size="197" Mass="6.3307" Label="Ca">
<Color red="0.269703" green="0.269703" blue="0.269703" pattern="12"></Color>
</Atom>
<Atom Number="21" Size="163" Mass="6.7049" Label="Sc">
<Color red="0.269703" green="0.269703" blue="0.269703" pattern="13"></Color>
</Atom>
<Atom Number="22" Size="147" Mass="6.9195" Label="Ti">
<Color red="0.635935" green="1" blue="0" pattern="14"></Color>
</Atom>
<Atom Number="23" Size="134" Mass="7.1373" Label="V">
<Color red="0.269703" green="0.269703" blue="0.269703" pattern="15"></Color>
</Atom>
<Atom Number="24" Size="130" Mass="7.2108" Label="Cr">
<Color red="0.269703" green="0.269703" blue="0.269703" pattern="16"></Color>
</Atom>
<Atom Number="25" Size="130" Mass="7.4115" Label="Mn">
<Color red="1" green="1" blue="1" pattern="17"></Color>
</Atom>
<Atom Number="26" Size="127" Mass="7.4731" Label="Fe">
<Color red="0.549981" green="0" blue="0" pattern="18"></Color>
</Atom>
<Atom Number="27" Size="125" Mass="7.6768" Label="Co">
<Color red="0.500008" green="0.500008" blue="0.500008" pattern="19"></Color>
</Atom>
<Atom Number="28" Size="124" Mass="7.6609" Label="Ni">
<Color red="0.500008" green="0.500008" blue="0.500008" pattern="20"></Color>
</Atom>
<Atom Number="29" Size="128" Mass="7.9716" Label="Cu">
<Color red="1" green="0.4" blue="0" pattern="21"></Color>
</Atom>
<Atom Number="30" Size="138" Mass="8.0864" Label="Zn">
<Color red="0.457771" green="0.457771" blue="0.457771" pattern="22"></Color>
</Atom>
<Atom Number="31" Size="135" Mass="8.35" Label="Ga">
<Color red="0.269703" green="0.269703" blue="0" pattern="23"></Color>
</Atom>
<Atom Number="32" Size="122" Mass="8.5212" Label="Ge">
<Color red="0.269703" green="0.269703" blue="0.269703" pattern="24"></Color>
</Atom>
<Atom Number="33" Size="120" Mass="8.6557" Label="As">
<Color red="0.269703" green="0.269703" blue="0.269703" pattern="25"></Color>
</Atom>
<Atom Number="34" Size="119" Mass="8.8859" Label="Se">
<Color red="0.269703" green="0.269703" blue="0.269703" pattern="26"></Color>
</Atom>
<Atom Number="35" Size="114" Mass="8.9389" Label="Br">
<Color red="0" green="0" blue="0.152575" pattern="27"></Color>
</Atom>
<Atom Number="36" Size="112" Mass="9.1542" Label="Kr">
<Color red="0.269703" green="0" blue="0" pattern="28"></Color>
</Atom>
<Atom Number="37" Size="248" Mass="9.2449" Label="Rb">
<Color red="0" green="0" blue="0" pattern="29"></Color>
</Atom>
<Atom Number="38" Size="215" Mass="9.3606" Label="Sr">